<?xml version="1.0"?>
<VTKFile type="UnstructuredGrid"  version="0.1"  >
<UnstructuredGrid>
<Piece  NumberOfPoints="1089" NumberOfCells="2048">
<Points>
<DataArray  type="Float64"  NumberOfComponents="3"  format="ascii">0 0 0  0.03125 0 0  0.0625 0 0  0.09375 0 0  0.125 0 0  0.15625 0 0  0.1875 0 0  0.21875 0 0  0.25 0 0  0.28125 0 0  0.3125 0 0  0.34375 0 0  0.375 0 0  0.40625 0 0  0.4375 0 0  0.46875 0 0  0.5 0 0  0.53125 0 0  0.5625 0 0  0.59375 0 0  0.625 0 0  0.65625 0 0  0.6875 0 0  0.71875 0 0  0.75 0 0  0.78125 0 0  0.8125 0 0  0.84375 0 0  0.875 0 0  0.90625 0 0  0.9375 0 0  0.96875 0 0  1 0 0  0 0.03125 0  0.03125 0.03125 0  0.0625 0.03125 0  0.09375 0.03125 0  0.125 0.03125 0  0.15625 0.03125 0  0.1875 0.03125 0  0.21875 0.03125 0  0.25 0.03125 0  0.28125 0.03125 0  0.3125 0.03125 0  0.34375 0.03125 0  0.375 0.03125 0  0.40625 0.03125 0  0.4375 0.03125 0  0.46875 0.03125 0  0.5 0.03125 0  0.53125 0.03125 0  0.5625 0.03125 0  0.59375 0.03125 0  0.625 0.03125 0  0.65625 0.03125 0  0.6875 0.03125 0  0.71875 0.03125 0  0.75 0.03125 0  0.78125 0.03125 0  0.8125 0.03125 0  0.84375 0.03125 0  0.875 0.03125 0  0.90625 0.03125 0  0.9375 0.03125 0  0.96875 0.03125 0  1 0.03125 0  0 0.0625 0  0.03125 0.0625 0  0.0625 0.0625 0  0.09375 0.0625 0  0.125 0.0625 0  0.15625 0.0625 0  0.1875 0.0625 0  0.21875 0.0625 0  0.25 0.0625 0  0.28125 0.0625 0  0.3125 0.0625 0  0.34375 0.0625 0  0.375 0.0625 0  0.40625 0.0625 0  0.4375 0.0625 0  0.46875 0.0625 0  0.5 0.0625 0  0.53125 0.0625 0  0.5625 0.0625 0  0.59375 0.0625 0  0.625 0.0625 0  0.65625 0.0625 0  0.6875 0.0625 0  0.71875 0.0625 0  0.75 0.0625 0  0.78125 0.0625 0  0.8125 0.0625 0  0.84375 0.0625 0  0.875 0.0625 0  0.90625 0.0625 0  0.9375 0.0625 0  0.96875 0.0625 0  1 0.0625 0  0 0.09375 0  0.03125 0.09375 0  0.0625 0.09375 0  0.09375 0.09375 0  0.125 0.09375 0  0.15625 0.09375 0  0.1875 0.09375 0  0.21875 0.09375 0  0.25 0.09375 0  0.28125 0.09375 0  0.3125 0.09375 0  0.34375 0.09375 0  0.375 0.09375 0  0.40625 0.09375 0  0.4375 0.09375 0  0.46875 0.09375 0  0.5 0.09375 0  0.53125 0.09375 0  0.5625 0.09375 0  0.59375 0.09375 0  0.625 0.09375 0  0.65625 0.09375 0  0.6875 0.09375 0  0.71875 0.09375 0  0.75 0.09375 0  0.78125 0.09375 0  0.8125 0.09375 0  0.84375 0.09375 0  0.875 0.09375 0  0.90625 0.09375 0  0.9375 0.09375 0  0.96875 0.09375 0  1 0.09375 0  0 0.125 0  0.03125 0.125 0  0.0625 0.125 0  0.09375 0.125 0  0.125 0.125 0  0.15625 0.125 0  0.1875 0.125 0  0.21875 0.125 0  0.25 0.125 0  0.28125 0.125 0  0.3125 0.125 0  0.34375 0.125 0  0.375 0.125 0  0.40625 0.125 0  0.4375 0.125 0  0.46875 0.125 0  0.5 0.125 0  0.53125 0.125 0  0.5625 0.125 0  0.59375 0.125 0  0.625 0.125 0  0.65625 0.125 0  0.6875 0.125 0  0.71875 0.125 0  0.75 0.125 0  0.78125 0.125 0  0.8125 0.125 0  0.84375 0.125 0  0.875 0.125 0  0.90625 0.125 0  0.9375 0.125 0  0.96875 0.125 0  1 0.125 0  0 0.15625 0  0.03125 0.15625 0  0.0625 0.15625 0  0.09375 0.15625 0  0.125 0.15625 0  0.15625 0.15625 0  0.1875 0.15625 0  0.21875 0.15625 0  0.25 0.15625 0  0.28125 0.15625 0  0.3125 0.15625 0  0.34375 0.15625 0  0.375 0.15625 0  0.40625 0.15625 0  0.4375 0.15625 0  0.46875 0.15625 0  0.5 0.15625 0  0.53125 0.15625 0  0.5625 0.15625 0  0.59375 0.15625 0  0.625 0.15625 0  0.65625 0.15625 0  0.6875 0.15625 0  0.71875 0.15625 0  0.75 0.15625 0  0.78125 0.15625 0  0.8125 0.15625 0  0.84375 0.15625 0  0.875 0.15625 0  0.90625 0.15625 0  0.9375 0.15625 0  0.96875 0.15625 0  1 0.15625 0  0 0.1875 0  0.03125 0.1875 0  0.0625 0.1875 0  0.09375 0.1875 0  0.125 0.1875 0  0.15625 0.1875 0  0.1875 0.1875 0  0.21875 0.1875 0  0.25 0.1875 0  0.28125 0.1875 0  0.3125 0.1875 0  0.34375 0.1875 0  0.375 0.1875 0  0.40625 0.1875 0  0.4375 0.1875 0  0.46875 0.1875 0  0.5 0.1875 0  0.53125 0.1875 0  0.5625 0.1875 0  0.59375 0.1875 0  0.625 0.1875 0  0.65625 0.1875 0  0.6875 0.1875 0  0.71875 0.1875 0  0.75 0.1875 0  0.78125 0.1875 0  0.8125 0.1875 0  0.84375 0.1875 0  0.875 0.1875 0  0.90625 0.1875 0  0.9375 0.1875 0  0.96875 0.1875 0  1 0.1875 0  0 0.21875 0  0.03125 0.21875 0  0.0625 0.21875 0  0.09375 0.21875 0  0.125 0.21875 0  0.15625 0.21875 0  0.1875 0.21875 0  0.21875 0.21875 0  0.25 0.21875 0  0.28125 0.21875 0  0.3125 0.21875 0  0.34375 0.21875 0  0.375 0.21875 0  0.40625 0.21875 0  0.4375 0.21875 0  0.46875 0.21875 0  0.5 0.21875 0  0.53125 0.21875 0  0.5625 0.21875 0  0.59375 0.21875 0  0.625 0.21875 0  0.65625 0.21875 0  0.6875 0.21875 0  0.71875 0.21875 0  0.75 0.21875 0  0.78125 0.21875 0  0.8125 0.21875 0  0.84375 0.21875 0  0.875 0.21875 0  0.90625 0.21875 0  0.9375 0.21875 0  0.96875 0.21875 0  1 0.21875 0  0 0.25 0  0.03125 0.25 0  0.0625 0.25 0  0.09375 0.25 0  0.125 0.25 0  0.15625 0.25 0  0.1875 0.25 0  0.21875 0.25 0  0.25 0.25 0  0.28125 0.25 0  0.3125 0.25 0  0.34375 0.25 0  0.375 0.25 0  0.40625 0.25 0  0.4375 0.25 0  0.46875 0.25 0  0.5 0.25 0  0.53125 0.25 0  0.5625 0.25 0  0.59375 0.25 0  0.625 0.25 0  0.65625 0.25 0  0.6875 0.25 0  0.71875 0.25 0  0.75 0.25 0  0.78125 0.25 0  0.8125 0.25 0  0.84375 0.25 0  0.875 0.25 0  0.90625 0.25 0  0.9375 0.25 0  0.96875 0.25 0  1 0.25 0  0 0.28125 0  0.03125 0.28125 0  0.0625 0.28125 0  0.09375 0.28125 0  0.125 0.28125 0  0.15625 0.28125 0  0.1875 0.28125 0  0.21875 0.28125 0  0.25 0.28125 0  0.28125 0.28125 0  0.3125 0.28125 0  0.34375 0.28125 0  0.375 0.28125 0  0.40625 0.28125 0  0.4375 0.28125 0  0.46875 0.28125 0  0.5 0.28125 0  0.53125 0.28125 0  0.5625 0.28125 0  0.59375 0.28125 0  0.625 0.28125 0  0.65625 0.28125 0  0.6875 0.28125 0  0.71875 0.28125 0  0.75 0.28125 0  0.78125 0.28125 0  0.8125 0.28125 0  0.84375 0.28125 0  0.875 0.28125 0  0.90625 0.28125 0  0.9375 0.28125 0  0.96875 0.28125 0  1 0.28125 0  0 0.3125 0  0.03125 0.3125 0  0.0625 0.3125 0  0.09375 0.3125 0  0.125 0.3125 0  0.15625 0.3125 0  0.1875 0.3125 0  0.21875 0.3125 0  0.25 0.3125 0  0.28125 0.3125 0  0.3125 0.3125 0  0.34375 0.3125 0  0.375 0.3125 0  0.40625 0.3125 0  0.4375 0.3125 0  0.46875 0.3125 0  0.5 0.3125 0  0.53125 0.3125 0  0.5625 0.3125 0  0.59375 0.3125 0  0.625 0.3125 0  0.65625 0.3125 0  0.6875 0.3125 0  0.71875 0.3125 0  0.75 0.3125 0  0.78125 0.3125 0  0.8125 0.3125 0  0.84375 0.3125 0  0.875 0.3125 0  0.90625 0.3125 0  0.9375 0.3125 0  0.96875 0.3125 0  1 0.3125 0  0 0.34375 0  0.03125 0.34375 0  0.0625 0.34375 0  0.09375 0.34375 0  0.125 0.34375 0  0.15625 0.34375 0  0.1875 0.34375 0  0.21875 0.34375 0  0.25 0.34375 0  0.28125 0.34375 0  0.3125 0.34375 0  0.34375 0.34375 0  0.375 0.34375 0  0.40625 0.34375 0  0.4375 0.34375 0  0.46875 0.34375 0  0.5 0.34375 0  0.53125 0.34375 0  0.5625 0.34375 0  0.59375 0.34375 0  0.625 0.34375 0  0.65625 0.34375 0  0.6875 0.34375 0  0.71875 0.34375 0  0.75 0.34375 0  0.78125 0.34375 0  0.8125 0.34375 0  0.84375 0.34375 0  0.875 0.34375 0  0.90625 0.34375 0  0.9375 0.34375 0  0.96875 0.34375 0  1 0.34375 0  0 0.375 0  0.03125 0.375 0  0.0625 0.375 0  0.09375 0.375 0  0.125 0.375 0  0.15625 0.375 0  0.1875 0.375 0  0.21875 0.375 0  0.25 0.375 0  0.28125 0.375 0  0.3125 0.375 0  0.34375 0.375 0  0.375 0.375 0  0.40625 0.375 0  0.4375 0.375 0  0.46875 0.375 0  0.5 0.375 0  0.53125 0.375 0  0.5625 0.375 0  0.59375 0.375 0  0.625 0.375 0  0.65625 0.375 0  0.6875 0.375 0  0.71875 0.375 0  0.75 0.375 0  0.78125 0.375 0  0.8125 0.375 0  0.84375 0.375 0  0.875 0.375 0  0.90625 0.375 0  0.9375 0.375 0  0.96875 0.375 0  1 0.375 0  0 0.40625 0  0.03125 0.40625 0  0.0625 0.40625 0  0.09375 0.40625 0  0.125 0.40625 0  0.15625 0.40625 0  0.1875 0.40625 0  0.21875 0.40625 0  0.25 0.40625 0  0.28125 0.40625 0  0.3125 0.40625 0  0.34375 0.40625 0  0.375 0.40625 0  0.40625 0.40625 0  0.4375 0.40625 0  0.46875 0.40625 0  0.5 0.40625 0  0.53125 0.40625 0  0.5625 0.40625 0  0.59375 0.40625 0  0.625 0.40625 0  0.65625 0.40625 0  0.6875 0.40625 0  0.71875 0.40625 0  0.75 0.40625 0  0.78125 0.40625 0  0.8125 0.40625 0  0.84375 0.40625 0  0.875 0.40625 0  0.90625 0.40625 0  0.9375 0.40625 0  0.96875 0.40625 0  1 0.40625 0  0 0.4375 0  0.03125 0.4375 0  0.0625 0.4375 0  0.09375 0.4375 0  0.125 0.4375 0  0.15625 0.4375 0  0.1875 0.4375 0  0.21875 0.4375 0  0.25 0.4375 0  0.28125 0.4375 0  0.3125 0.4375 0  0.34375 0.4375 0  0.375 0.4375 0  0.40625 0.4375 0  0.4375 0.4375 0  0.46875 0.4375 0  0.5 0.4375 0  0.53125 0.4375 0  0.5625 0.4375 0  0.59375 0.4375 0  0.625 0.4375 0  0.65625 0.4375 0  0.6875 0.4375 0  0.71875 0.4375 0  0.75 0.4375 0  0.78125 0.4375 0  0.8125 0.4375 0  0.84375 0.4375 0  0.875 0.4375 0  0.90625 0.4375 0  0.9375 0.4375 0  0.96875 0.4375 0  1 0.4375 0  0 0.46875 0  0.03125 0.46875 0  0.0625 0.46875 0  0.09375 0.46875 0  0.125 0.46875 0  0.15625 0.46875 0  0.1875 0.46875 0  0.21875 0.46875 0  0.25 0.46875 0  0.28125 0.46875 0  0.3125 0.46875 0  0.34375 0.46875 0  0.375 0.46875 0  0.40625 0.46875 0  0.4375 0.46875 0  0.46875 0.46875 0  0.5 0.46875 0  0.53125 0.46875 0  0.5625 0.46875 0  0.59375 0.46875 0  0.625 0.46875 0  0.65625 0.46875 0  0.6875 0.46875 0  0.71875 0.46875 0  0.75 0.46875 0  0.78125 0.46875 0  0.8125 0.46875 0  0.84375 0.46875 0  0.875 0.46875 0  0.90625 0.46875 0  0.9375 0.46875 0  0.96875 0.46875 0  1 0.46875 0  0 0.5 0  0.03125 0.5 0  0.0625 0.5 0  0.09375 0.5 0  0.125 0.5 0  0.15625 0.5 0  0.1875 0.5 0  0.21875 0.5 0  0.25 0.5 0  0.28125 0.5 0  0.3125 0.5 0  0.34375 0.5 0  0.375 0.5 0  0.40625 0.5 0  0.4375 0.5 0  0.46875 0.5 0  0.5 0.5 0  0.53125 0.5 0  0.5625 0.5 0  0.59375 0.5 0  0.625 0.5 0  0.65625 0.5 0  0.6875 0.5 0  0.71875 0.5 0  0.75 0.5 0  0.78125 0.5 0  0.8125 0.5 0  0.84375 0.5 0  0.875 0.5 0  0.90625 0.5 0  0.9375 0.5 0  0.96875 0.5 0  1 0.5 0  0 0.53125 0  0.03125 0.53125 0  0.0625 0.53125 0  0.09375 0.53125 0  0.125 0.53125 0  0.15625 0.53125 0  0.1875 0.53125 0  0.21875 0.53125 0  0.25 0.53125 0  0.28125 0.53125 0  0.3125 0.53125 0  0.34375 0.53125 0  0.375 0.53125 0  0.40625 0.53125 0  0.4375 0.53125 0  0.46875 0.53125 0  0.5 0.53125 0  0.53125 0.53125 0  0.5625 0.53125 0  0.59375 0.53125 0  0.625 0.53125 0  0.65625 0.53125 0  0.6875 0.53125 0  0.71875 0.53125 0  0.75 0.53125 0  0.78125 0.531
[...]
<PointData  Scalars="f_3"> 
<DataArray  type="Float64"  Name="f_3"  format="ascii">0.0000000000000000e+00  4.1987378477818665e-02  8.3157297406338843e-02  1.2270988176884567e-01  1.5988004236218326e-01  1.9395392888102955e-01  2.2428430488488948e-01  2.5030456302925680e-01  2.7154115469245399e-01  2.8762426276665348e-01  2.9829658892543642e-01  3.0342014550857721e-01  3.0298092889748285e-01  2.9709130651554333e-01  2.8598988862862590e-01  2.7003861041027583e-01  2.4971676050860692e-01  2.2561179555277133e-01  1.9840698833606596e-01  1.6886624981095172e-01  1.3781679304387942e-01  1.0613061815206280e-01  7.4706065277110045e-02  4.4450938262288069e-02  1.6269059712362643e-02  -8.9471657033255055e-03  -3.0313955271996866e-02  -4.6934838471168916e-02  -5.7841638578704467e-02  -6.1845422735427903e-02  -5.7130148532598776e-02  -3.9970519889801846e-02  0.0000000000000000e+00  0.0000000000000000e+00  3.7552886971452537e-02  7.4397524461929404e-02  1.0984056408442640e-01  1.4321813728148430e-01  1.7390980673509193e-01  2.0135161886023295e-01  2.2504803205792739e-01  2.4458254903110763e-01  2.5962693388857061e-01  2.6994893428334665e-01  2.7541844208004462e-01  2.7601200198895337e-01  2.7181551434039286e-01  2.6302489049492439e-01  2.4994434231075921e-01  2.3298196961377232e-01  2.1264239680032410e-01  1.8951641952305837e-01  1.6426793098953996e-01  1.3761874498985258e-01  1.1033225128499415e-01  8.3197088366521232e-02  5.7012215104402492e-02  3.2574992882233790e-02  1.0674320932503870e-02  -7.9082205730940866e-03  -2.2384427700137481e-02  -3.1924696922431078e-02  -3.5591050613043393e-02  -3.2238863121745960e-02  -2.0521003414242154e-02  0.0000000000000000e+00  0.0000000000000000e+00  3.3826644938664122e-02  6.7039349356876304e-02  9.9036712724759668e-02  1.2924213562221026e-01  1.5711554098109873e-01  1.8216432928623760e-01  2.0395339135405219e-01  2.2211406245452228e-01  2.3635196354659654e-01  2.4645372531921128e-01  2.5229260930058273e-01  2.5383300697700950e-01  2.5113370081016584e-01  2.4434962146626271e-01  2.3373167864238586e-01  2.1962415314438033e-01  2.0245919196573908e-01  1.8274818328401360e-01  1.6107017168580604e-01  1.3805790775709612e-01  1.1438249173252318e-01  9.0737785823666955e-02  6.7825821885510187e-02  4.6344366631127863e-02  2.6977673121408453e-02  1.0391178154056669e-02  -2.7699554107185479e-03  -1.1881670987847575e-02  -1.6355219729502917e-02  -1.5713249942618950e-02  -9.8746306492692015e-03  0.0000000000000000e+00  0.0000000000000000e+00  3.0714343397704052e-02  6.0896515191287241e-02  9.0024801445121511e-02  1.1759815025145497e-01  1.4314588864119376e-01  1.6623675631227997e-01  1.8648711840961027e-01  2.0356829505506918e-01  2.1721303125847882e-01  2.2722121064114334e-01  2.3346496033978881e-01  2.3589326223614279e-01  2.3453604175731080e-01  2.2950744818018154e-01  2.2100773098760940e-01  2.0932288235340193e-01  1.9482120317767535e-01  1.7794624332837033e-01  1.5920611838503848e-01  1.3915983836884835e-01  1.1840177620914850e-01  9.7545598208764489e-02  7.7208844211033925e-02  5.7998942137200478e-02  4.0500810774795448e-02  2.5265209103372585e-02  1.2795096579182921e-02  3.5231873485983734e-03  -2.2349076033817451e-03  -4.3842863324445843e-03  -3.2642692557351329e-03  0.0000000000000000e+00  0.0000000000000000e+00  2.8134213360178364e-02  5.5807566175042886e-02  8.2567826236637928e-02  1.0797977088516882e-01  1.3163309415791163e-01  1.5314965481288531e-01  1.7218994869660009e-01  1.8845878777873282e-01  2.0171029608323507e-01  2.1175247293239552e-01  2.1845168178353272e-01  2.2173742209160949e-01  2.2160754596224325e-01  2.1813365246818761e-01  2.1146581049333521e-01  2.0183524965100341e-01  1.8955350832106180e-01  1.7500692644046578e-01  1.5864625195274507e-01  1.4097216479366206e-01  1.2251828820857577e-01  1.0383346877680014e-01  8.5464740023463590e-02  6.7941614468280773e-02  5.1761360605404289e-02  3.7373727697521855e-02  2.5161936846674116e-02  1.5414228621577188e-02  8.2766874627730868e-03  3.6752812430774964e-03  1.2018399018389589e-03  0.0000000000000000e+00  0.0000000000000000e+00  2.6014943545941069e-02  5.1631708662024600e-02  7.6459162029092975e-02  1.0011999873364845e-01  1.2225702095923917e-01  1.4253871036369997e-01  1.6066396887696704e-01  1.7636602952752245e-01  1.8941573027724010e-01  1.9962459162051679e-01  2.0684838139541439e-01  2.1099194996121617e-01  2.1201588811086286e-01  2.0994487097766945e-01  2.0487649449287082e-01  1.9698838069521091e-01  1.8654089430090803e-01  1.7387338349071116e-01  1.5939334787806742e-01  1.4355973058823743e-01  1.2686282320499967e-01  1.0980354411025867e-01  9.2874127386764857e-02  7.6540977752232411e-02  6.1229097257330417e-02  4.7306327376621687e-02  3.5064666531964550e-02  2.4695093577306027e-02  1.6252144804956702e-02  9.6068831774786465e-03  4.3963474300048417e-03  0.0000000000000000e+00  0.0000000000000000e+00  2.4293851225039301e-02  4.8245159258360301e-02  7.1517101622031079e-02  9.3783999727933456e-02  1.1473615978358406e-01  1.3408387571863795e-01  1.5156041065170162e-01  1.6692392411590329e-01  1.7995858917574817e-01  1.9047556835427870e-01  1.9831501693691744e-01  2.0335062021657538e-01  2.0549796852498201e-01  2.0472700744069749e-01  2.0107693809241964e-01  1.9466996521051921e-01  1.8571929319843311e-01  1.7452760102559434e-01  1.6147479480266722e-01  1.4699700103836666e-01  1.3156099894079515e-01  1.1563865248063290e-01  9.9684532666540149e-02  8.4117758224356617e-02  6.9307145044389756e-02  5.5557586462831765e-02  4.3095223971910464e-02  3.2049306394275709e-02  2.2429906573463894e-02  1.4103756920004269e-02  6.7766660638390640e-03  0.0000000000000000e+00  0.0000000000000000e+00  2.2915299619070535e-02  4.5537965887059627e-02  6.7580051373544489e-02  8.8762629051420711e-02  1.0881942164145522e-01  1.2749936746185592e-01  1.4456780492251547e-01  1.5980611096083835e-01  1.7301000721476215e-01  1.8398744454493934e-01  1.9255792840001995e-01  1.9855596985619847e-01  2.0184132073338357e-01  2.0231706550844833e-01  1.9995345906542408e-01  1.9481176136356770e-01  1.8706025983016830e-01  1.7697586609359572e-01  1.6492907158048989e-01  1.5135557840111116e-01  1.3672176817956161e-01  1.2149162741566760e-01  1.0610018482942257e-01  9.0934787739236661e-02  7.6322555737264514e-02  6.2521014796779670e-02  4.9709104941731620e-02  3.7976924596407689e-02  2.7314394966685446e-02  1.7601565489977194e-02  8.6065583121496935e-03  0.0000000000000000e+00  0.0000000000000000e+00  2.1829375407123042e-02  4.3411330089351975e-02  6.4502426713226924e-02  8.4866778554545025e-02  1.0427875400061618e-01  1.2252429859203234e-01  1.3940031474627659e-01  1.5471164632428372e-01  1.6826569476201417e-01  1.7986578108066353e-01  1.8930605887875643e-01  1.9637248592721757e-01  2.0085479245155985e-01  2.0257212879313510e-01  2.0140982332149837e-01  1.9735828169701233e-01  1.9054112077289664e-01  1.8122129862393815e-01  1.6978135352901635e-01  1.5668328670296228e-01  1.4242009015790347e-01  1.2747143659854449e-01  1.1227140405399418e-01  9.7189728443079798e-02  8.2523335460322811e-02  6.8493229549515089e-02  5.5242678151155133e-02  4.2834699859249342e-02  3.1249125075097042e-02  2.0381535767919411e-02  1.0047997691989663e-02  0.0000000000000000e+00  0.0000000000000000e+00  2.0990858889113406e-02  4.1775501518734694e-02  6.2151366516533670e-02  8.1922722700411760e-02  1.0090281015318603e-01  1.1891420201157808e-01  1.3578644788038619e-01  1.5135003686733806e-01  1.6542626961450402e-01  1.7781423907508026e-01  1.8827892953928471e-01  1.9654759483071541e-01  2.0232291604728384e-01  2.0531838619015147e-01  2.0531306391056178e-01  2.0221213572617319e-01  1.9609271312608581e-01  1.8721650999208361e-01  1.7600288085895022e-01  1.6297113496446711e-01  1.4867153687766060e-01  1.3362490829076817e-01  1.1828274466834234e-01  1.0300920507827890e-01  8.8078904388608659e-02  7.3682300094775277e-02  5.9932364581927446e-02  4.6869634259515180e-02  3.4465737242970029e-02  2.2627418316455178e-02  1.1203887539351261e-02  0.0000000000000000e+00  0.0000000000000000e+00  2.0358532704017815e-02  4.0548349314336374e-02  6.0404455425890187e-02  7.9768773491289219e-02  9.8492147198199986e-02  1.1643412467989935e-01  1.3345904848084345e-01  1.4942670883633521e-01  1.6417637384751202e-01  1.7750526777655357e-01  1.8914694039030513e-01  1.9876028600695783e-01  2.0594284289470191e-01  2.1027808966806905e-01  2.1141395018257353e-01  2.0915280629657795e-01  2.0352167727810899e-01  1.9479400124641924e-01  1.8345261518620676e-01  1.7010760371962932e-01  1.5539897208294745e-01  1.3991449839282627e-01  1.2414016184591173e-01  1.0844392113649728e-01  9.3082389478806024e-02  7.8217294114066402e-02  6.3932130827699676e-02  5.0244830102939092e-02  3.7116496731615711e-02  2.4458436943770499e-02  1.2140115127903495e-02  0.0000000000000000e+00  0.0000000000000000e+00  1.9894875692497958e-02  3.9654724103526780e-02  5.9148679666702328e-02  7.8253657039500796e-02  9.6856666945686926e-02  1.1485446988998275e-01  1.3214841939671995e-01  1.4863168908778332e-01  1.6416654087334001e-01  1.7855228441535320e-01  1.9149094232437799e-01  2.0256587211940308e-01  2.1125372053095870e-01  2.1698535143481393e-01  2.1925356971804277e-01  2.1774035206389492e-01  2.1241831862137298e-01  2.0358440707638659e-01  1.9181005867750409e-01  1.7782769356942849e-01  1.6239721004096103e-01  1.4619646205676129e-01  1.2976006656028219e-01  1.1346621166714790e-01  9.7554970701542884e-02  8.2158449265714625e-02  6.7328929920028507e-02  5.3059354036787812e-02  3.9296464822374741e-02  2.5949574497758861e-02  1.2898100052580953e-02  0.0000000000000000e+00  0.0000000000000000e+00  1.9566168723728520e-02  3.9026689254293694e-02  5.8280804700137988e-02  7.7237017679401970e-02  9.5816108375589598e-02  1.1395109915624342e-01  1.3158124674500182e-01  1.4863597667689848e-01  1.6500493116042991e-01  1.8049405077309480e-01  1.9477626855624700e-01  2.0735715808194222e-01  2.1758390250757201e-01  2.2472055865801760e-01  2.2808868361588722e-01  2.2723751312655510e-01  2.2208210616515828e-01  2.1295131114310062e-01  2.0052332435988726e-01  1.8567566709726710e-01  1.6930960084237581e-01  1.5220903393226312e-01  1.3496638865675140e-01  1.1797355599738443e-01  1.0145405459173397e-01  8.5508851467600941e-02  7.0157054577780070e-02  5.5364271452116198e-02  4.1059545705454385e-02  2.7145050317122089e-02  1.3502648685644658e-02  0.0000000000000000e+00  0.0000000000000000e+00  1.9342994287238725e-02  3.8604605917588200e-02  5.7709214421301294e-02  7.6592252179076600e-02  9.5204161690623526e-02  1.1351099602741208e-01  1.3148796760254788e-01  1.4910051202273877e-01  1.6626739451626862e-01  1.8280482516764304e-01  1.9836154151219754e-01  2.1237032086610963e-01  2.2405265274164818e-01  2.3250751091655542e-01  2.3688508561543900e-01  2.3660117828995003e-01  2.3151371825509556e-01  2.2198617729424955e-01  2.0880844269099696e-01  1.9300911129493267e-01  1.7563625755665965e-01  1.5758368509769652e-01  1.3950366643840992e-01  1.2180257931455342e-01  1.0468765409734336e-01  8.8228946014519402e-02  7.2412580033520663e-02  5.7176581432200960e-02  4.2431009899756227e-02  2.8068048128276089e-02  1.3967347488974897e-02  0.0000000000000000e+00  0.0000000000000000e+00  1.9201044955652957e-02  3.8338907007831713e-02  5.7356985047892564e-02  7.6211435503977451e-02  9.4876073163075350e-02  1.1334371806182486e-01  1.3161962902269317e-01  1.4970039099002080e-01  1.6753126189225609e-01  1.8493995454347290e-01  2.0155783829144663e-01  2.1675841111092900e-01  2.2965721739025505e-01  2.3921149865631583e-01  2.4442247514311394e-01  2.4458879292306152e-01  2.3951758100424794e-01  2.2960239956861425e-01  2.1573176540047398e-01  1.9906826000412645e-01  1.8079043847352647e-01  1.6188986622112925e-01  1.4307210292061115e-01  1.2475656437535099e-01  1.0713634297299750e-01  9.0254540771461958e-02  7.4068507431673467e-02  5.8492014029664197e-02  4.3417896128709277e-02  2.8728238479715146e-02  1.4298555193487683e-02  0.0000000000000000e+00  0.0000000000000000e+00  1.9122083293884609e-02  3.8192224372799871e-02  5.7165637217103722e-02  7.6011497366544306e-02  9.4718535997816489e-02  1.1329698737484835e-01  1.3177209343522603e-01  1.5016171332151274e-01  1.6842996117770598e-01  1.8641406485251055e-01  2.0373597883501970e-01  2.1973148173866291e-01  2.3344605905732621e-01  2.4374115212531539e-01  2.4951549215334734e-01  2.4998549105024698e-01  2.4492084682255022e-01  2.3473361402820650e-01  2.2037912181896763e-01  2.0311249517085181e-01  1.8420343149504109e-01  1.6471244293979181e-01  1.4538316853461347e-01  1.2664488818508163e-01  1.0868137933364147e-01  9.1517300149687286e-02  7.5090130574237995e-02  5.9296752457098381e-02  4.4017780079413184e-02  2.9127747835306927e-02  1.4498456122970835e-02  0.0000000000000000e+00  0.0000000000000000e+00  1.9094843765407113e-02  3.8141403311847642e-02  5.7098737800044985e-02  7.5940266373610357e-02  9.4659608373950016e-02  1.1327277584435926e-01  1.3181179604608786e-01  1.5030204786323759e-01  1.6871484442269397e-01  1.8689209371680085e-01  2.0445458888245713e-01  2.2072747060588205e-01  2.3473389047882198e-01  2.4530252740998021e-01  2.5129481474670035e-01  2.5189478651630248e-01  2.4685428310851382e-01  2.3658752145502387e-01  2.2207078240956168e-01  2.0459160385076319e-01  1.8545361749405112e-01  1.6574443568640351e-01  1.4622383135788825e-01  1.2732651068233863e-01  1.0923398813461946e-01  9.1964697492865149e-02  7.5448950760277814e-02  5.9577325430883607e-02  4.4225737154409965e-02  2.9265685202565658e-02  1.4567310917133328e-02  0.0000000000000000e+00  0.0000000000000000e+00  1.9115662764877393e-02  3.8178917306916471e-02  5.7144451844678840e-02  7.5980805212898253e-02  9.4675936154471979e-02  1.1323922409010515e-01  1.3169518739038169e-01  1.5006155205874230e-01  1.6830359705857673e-01  1.8626176677398051e-01  2.0356361187909502e-01  2.1955218895225637e-01  2.3327990160245066e-01  2.4361180608439575e-01  2.4944440712144525e-01  2.4998549105024692e-01  2.4499193185445228e-01  2.3486296006912616e-01  2.2054527927384318e-01  2.0329178795725830e-01  1.8437579845096574e-01  1.6486474101832171e-01  1.4550953265374253e-01  1.2674504944785181e-01  1.0875828537848570e-01  9.1575063434430407e-02  7.5132730417582408e-02  5.9327444610744386e-02  4.4038965451838004e-02  2.9141054901190275e-02  1.4504876651978015e-02  0.0000000000000000e+00  0.0000000000000000e+00  1.9188679441230639e-02  3.8313319849699164e-02  5.7316360316727454e-02  7.6152806764637232e-02  9.4795095442719524e-02  1.1323454454466506e-01  1.3147517947441148e-01  1.4951344610839135e-01  1.6729681624380918e-01  1.8465889461946960e-01  2.0124117100574290e-01  2.1643020820708880e-01  2.2935389062755185e-01  2.3897582175603677e-01  2.4429309850545225e-01  2.4458879292306146e-01  2.3964695764190952e-01  2.2983807646889326e-01  2.1603509216317712e-01  1.9939646290796653e-01  1.8110710575923011e-01  1.6217092614513240e-01  1.4330654856905775e-01  1.2494350925698017e-01  1.0728079252127901e-01  9.0363714288621555e-02  7.4149485152029182e-02  5.8550642769004270e-02  4.3458520859874221e-02  2.8753825637847598e-02  1.4310920707909952e-02  0.0000000000000000e+00  0.0000000000000000e+00  1.9325556468056140e-02  3.8568615700841469e-02  5.7652320781606384e-02  7.6510647417228961e-02  9.5092329989294636e-02  1.1336161265445398e-01  1.3129230654001550e-01  1.4884989254844214e-01  1.6595618107585797e-01  1.8243502900145467e-01  1.9794803070016878e-01  2.1194435256608327e-01  2.2366079342544032e-01  2.3220403125946823e-01  2.3671880577359541e-01  2.3660117828994995e-01  2.3167999809693907e-01  2.2228965695133662e-01  2.0920030200720469e-01  1.9343507959495876e-01  1.7604976836868824e-01  1.5795348126388470e-01  1.3981487987882016e-01  1.2205319878884974e-01  1.0488331515987541e-01  8.8378329387477139e-02  7.2524411734849262e-02  5.7258186194048342e-02  4.2487903539450936e-02  2.8104038345022685e-02  1.3984785308157419e-02  0.0000000000000000e+00  0.0000000000000000e+00  1.9544792781661283e-02  3.8982719376468196e-02  5.8211691487243436e-02  7.7138681819631114e-02  9.5682733764867425e-02  1.1377511185569031e-01  1.3135384798718519e-01  1.4834876011977871e-01  1.6465307674569898e-01  1.8008109336799780e-01  1.9431937570928712e-01  2.0689056010095502e-01  2.1715750683421359e-01  2.2439186656360949e-01  2.2790908477273458e-01  2.2723751312655499e-01  2.2226170500831074e-01  2.1328000323750856e-01  2.0094972003324552e-01  1.8614226507825407e-01  1.6976649368933541e-01  1.5262199133735974e-01  1.3531824307148194e-01  1.1826077255450386e-01  1.0168145334955021e-01  8.5684838768153637e-02  7.0290429188501841e-02  5.5462607311886743e-02  4.1128658918348694e-02  2.7189020194947431e-02  1.3524024627711816e-02  0.0000000000000000e+00  0.0000000000000000e+00  1.9870798398220101e-02  3.9605393284772236e-02  5.9071657640819786e-02  7.8145104552943032e-02  9.6711225956999783e-02  1.1466535159559892e-01  1.3190802733019197e-01  1.4833323343843741e-01  1.6380704072049548e-01  1.7813689294008292e-01  1.9103758392567444e-01  2.0210806697179204e-01  2.1083898941616919e-01  2.1666761371130086e-01  2.1908059011266964e-01  2.1774035206389483e-01  2.1259129822674591e-01  2.0390214479989940e-01  1.9222478979229327e-01  1.7828549871703911e-01  1.6285056843966417e-01  1.4661185353203116e-01  1.3011956671312630e-01  1.1376466731649344e-01  9.7795362768070354e-02  8.2347567560097923e-02  6.7474370908715151e-02  5.3167906523345174e-02  3.9373486848256992e-02  2.5998905316513207e-02  1.2922177346858712e-02  0.0000000000000000e+00  0.0000000000000000e+00  2.0332945627430089e-02  4.0496151868393671e-02  6.0323552920438256e-02  7.9655932944628735e-02  9.8342982942458010e-02  1.1624329037989385e-01  1.3322089849677729e-01  1.4913677331039857e-01  1.6383391774320619e-01  1.7711681444545135e-01  1.8872988846920466e-01  1.9834489970201713e-01  2.0557057562926295e-01  2.0999507013560559e-01  2.1126057800080522e-01  2.0915280629657784e-01  2.0367504945987702e-01  1.9507702077888228e-01  1.8382488245164511e-01  1.7052299002456947e-01  1.5581602400404737e-01  1.4030295172392793e-01  1.2448261795021701e-01  1.0873385666243347e-01  9.3320539462871638e-02  7.8408128414071354e-02  6.4081295083441098e-02  5.0357670649599159e-02  3.7197399237067295e-02  2.4510634389712953e-02  1.2165702204491107e-02  0.0000000000000000e+00  0.0000000000000000e+00  2.0964796267195333e-02  4.1722572539585355e-02  6.2069951413502404e-02  8.1810386806537627e-02  1.0075637789647268e-01  1.1873002169547112e-01  1.3556103539211597e-01  1.5108132708732883e-01  1.6511562587078049e-01  1.7746906933439519e-01  1.8791521650296322e-01  1.9619106866234132e-01  2.0200742702093613e-01  2.0508071774816222e-01  2.0518497563638802e-01  2.0221213572617308e-01  1.9622080140025924e-01  1.8745417843407230e-01  1.7631836988529728e-01  1.6332766113284061e-01  1.4903524991398140e-01  1.3397007803145256e-01  1.1859338841206521e-01  1.0327791485828761e-01  8.8304316876878286e-02  7.3866480410881633e-02  6.0078796838640258e-02  4.6981970153388890e-02  3.4547152346000982e-02  2.2680347295604308e-02  1.1229950161269230e-02  0.0000000000000000e+00  0.0000000000000000e+00  2.1803647880709178e-02  4.3359314837440488e-02  6.4423018798251394e-02  8.4758379720571889e-02  1.0413940514685953e-01  1.2235197536841863e-01  1.3919350684663501e-01  1.5447035209943250e-01  1.6799288991377548e-01  1.7956920389268688e-01  1.8899979753135560e-01  1.9607749972478256e-01  2.0059743627995119e-01  2.0238025208677823e-01  2.0130706233533063e-01  1.9735828169701208e-01  1.9064388175906388e-01  1.8141317533029444e-01  1.7003870970062437e-01  1.5697827290539665e-01  1.4272635150530347e-01  1.2776801378652039e-01  1.1254420890223212e-01  9.7431022667930273e-02  8.2730143359963718e-02  6.8665552773128219e-02  5.5382027004911315e-02  4.2943098693222097e-02  3.1328532990072294e-02  2.0433551019830701e-02  1.0073725218403428e-02  0.0000000000000000e+00  0.0000000000000000e+00  2.2890471269662604e-02  4.5487983633057498e-02  6.7504296757926879e-02  